TITLE = "Example: 2D Quad Element Data"
VARIABLES = "X", "Y", "Ux", "Uy", "Fx", "Fy"
ZONE NODES=121, ELEMENTS=100, DATAPACKING=POINT, ZONETYPE=FEQUADRILATERAL
0	0	-0.5	0	-639.426	3.44244E-10
10	0	-0.4	-0.0673399	0	9.09495E-13
20	0	-0.3	-0.13468	3.63798E-12	1.81899E-12
30	0	-0.2	-0.20202	5.45697E-12	5.45697E-12
40	0	-0.1	-0.26936	-3.63798E-12	0
50	0	-2.14282E-15	-0.336699	5.45697E-12	7.27596E-12
60	0	0.1	-0.404039	0	0
70	0	0.2	-0.471379	0	0
80	0	0.3	-0.538719	-3.63798E-12	0
90	0	0.4	-0.606059	3.63798E-12	0
100	0	0.5	-0.673399	639.426	0
0	10	-0.5	-0.0273727	-1278.85	-9.09495E-13
10	10	-0.4	-0.0947125	-5.45697E-12	-5.45697E-12
20	10	-0.3	-0.162052	2.36469E-11	5.45697E-12
30	10	-0.2	-0.229392	5.45697E-12	1.81899E-12
40	10	-0.1	-0.296732	-1.09139E-11	1.09139E-11
50	10	-1.56304E-15	-0.364072	-9.09495E-12	1.27329E-11
60	10	0.1	-0.431412	-2.54659E-11	3.63798E-12
70	10	0.2	-0.498752	-1.09139E-11	1.09139E-11
80	10	0.3	-0.566092	-1.81899E-11	-4.00178E-11
90	10	0.4	-0.633432	1.45519E-11	-1.45519E-11
100	10	0.5	-0.700772	1278.85	3.63798E-12
0	20	-0.5	-0.0547453	-1278.85	-9.09495E-12
10	20	-0.4	-0.122085	4.54747E-12	-1.45519E-11
20	20	-0.3	-0.189425	-3.63798E-12	-1.27329E-11
30	20	-0.2	-0.256765	-3.63798E-12	-7.27596E-12
40	20	-0.1	-0.324105	9.09495E-12	3.63798E-12
50	20	-7.97581E-17	-0.391445	-1.81899E-12	7.27596E-12
60	20	0.1	-0.458785	0	-7.27596E-12
70	20	0.2	-0.526125	-1.45519E-11	0
80	20	0.3	-0.593464	3.63798E-11	2.18279E-11
90	20	0.4	-0.660804	7.27596E-12	1.81899E-11
100	20	0.5	-0.728144	1278.85	0
0	30	-0.5	-0.082118	-1278.85	1.81899E-12
10	30	-0.4	-0.149458	9.09495E-12	-5.45697E-12
20	30	-0.3	-0.216798	5.45697E-12	1.81899E-12
30	30	-0.2	-0.284138	7.27596E-12	0
40	30	-0.1	-0.351478	0	-1.27329E-11
50	30	1.26576E-15	-0.418817	0	3.63798E-12
60	30	0.1	-0.486157	1.45519E-11	3.63798E-12
70	30	0.2	-0.553497	-2.18279E-11	0
80	30	0.3	-0.620837	1.45519E-11	3.63798E-12
90	30	0.4	-0.688177	-1.09139E-11	-2.91038E-11
100	30	0.5	-0.755517	1278.85	-7.27596E-12
0	40	-0.5	-0.109491	-1278.85	6.36646E-12
10	40	-0.4	-0.176831	-1.81899E-12	-1.81899E-12
20	40	-0.3	-0.24417	0	-7.27596E-12
30	40	-0.2	-0.31151	-1.81899E-12	0
40	40	-0.1	-0.37885	-2.00089E-11	-1.09139E-11
50	40	1.66771E-15	-0.44619	-2.18279E-11	3.63798E-12
60	40	0.1	-0.51353	0	-3.63798E-12
70	40	0.2	-0.58087	-1.81899E-11	2.18279E-11
80	40	0.3	-0.64821	2.54659E-11	1.09139E-11
90	40	0.4	-0.71555	3.63798E-12	1.09139E-11
100	40	0.5	-0.78289	1278.85	1.09139E-11
0	50	-0.5	-0.136863	-1278.85	-7.27596E-12
10	50	-0.4	-0.204203	9.09495E-12	1.63709E-11
20	50	-0.3	-0.271543	5.45697E-12	-9.09495E-12
30	50	-0.2	-0.338883	-1.81899E-11	1.09139E-11
40	50	-0.1	-0.406223	-3.63798E-12	0
50	50	2.21392E-15	-0.473563	2.18279E-11	3.63798E-12
60	50	0.1	-0.540903	1.09139E-11	3.63798E-12
70	50	0.2	-0.608243	0	0
80	50	0.3	-0.675582	0	1.81899E-11
90	50	0.4	-0.742922	-2.54659E-11	-2.91038E-11
100	50	0.5	-0.810262	1278.85	6.36646E-12
0	60	-0.5	-0.164236	-1278.85	3.63798E-12
10	60	-0.4	-0.231576	-1.81899E-12	-1.09139E-11
20	60	-0.3	-0.298916	-1.27329E-11	-1.27329E-11
30	60	-0.2	-0.366256	-2.00089E-11	-3.63798E-12
40	60	-0.1	-0.433595	-1.81899E-11	0
50	60	1.65682E-15	-0.500935	1.81899E-11	2.18279E-11
60	60	0.1	-0.568275	-1.81899E-11	2.91038E-11
70	60	0.2	-0.635615	7.27596E-12	0
80	60	0.3	-0.702955	1.45519E-11	-3.63798E-12
90	60	0.4	-0.770295	-5.09317E-11	2.18279E-11
100	60	0.5	-0.837635	1278.85	-3.63798E-12
0	70	-0.5	-0.191609	-1278.85	-1.81899E-12
10	70	-0.4	-0.258948	-3.63798E-12	-1.09139E-11
20	70	-0.3	-0.326288	1.81899E-11	7.27596E-12
30	70	-0.2	-0.393628	-1.81899E-12	-1.09139E-11
40	70	-0.1	-0.460968	3.63798E-12	-1.09139E-11
50	70	1.77699E-15	-0.528308	2.18279E-11	7.27596E-12
60	70	0.1	-0.595648	-2.54659E-11	-1.81899E-11
70	70	0.2	-0.662988	-2.91038E-11	-1.81899E-11
80	70	0.3	-0.730328	7.27596E-12	-2.18279E-11
90	70	0.4	-0.797668	1.45519E-11	-3.63798E-12
100	70	0.5	-0.865007	1278.85	-1.81899E-12
0	80	-0.5	-0.218981	-1278.85	-5.45697E-12
10	80	-0.4	-0.286321	3.63798E-12	-7.27596E-12
20	80	-0.3	-0.353661	1.45519E-11	-1.81899E-12
30	80	-0.2	-0.421001	1.45519E-11	1.45519E-11
40	80	-0.1	-0.488341	-2.18279E-11	-1.81899E-11
50	80	1.35856E-15	-0.555681	-1.45519E-11	1.09139E-11
60	80	0.1	-0.623021	-1.81899E-11	-3.63798E-12
70	80	0.2	-0.69036	0	3.27418E-11
80	80	0.3	-0.7577	-2.54659E-11	-1.09139E-11
90	80	0.4	-0.82504	1.81899E-11	-1.81899E-11
100	80	0.5	-0.89238	1278.85	-1.27329E-11
0	90	-0.5	-0.246354	-1278.85	-3.63798E-12
10	90	-0.4	-0.313694	9.09495E-12	-5.45697E-12
20	90	-0.3	-0.381034	1.09139E-11	0
30	90	-0.2	-0.448374	1.45519E-11	3.63798E-12
40	90	-0.1	-0.515713	2.91038E-11	0
50	90	2.67431E-15	-0.583053	-7.27596E-12	0
60	90	0.1	-0.650393	1.09139E-11	0
70	90	0.2	-0.717733	-7.27596E-12	0
80	90	0.3	-0.785073	-1.09139E-11	-2.18279E-11
90	90	0.4	-0.852413	2.54659E-11	7.27596E-12
100	90	0.5	-0.919753	1278.85	1.81899E-12
0	100	-0.5	-0.273727	-639.426	4.54747E-13
10	100	-0.4	-0.341066	-6.36646E-12	-1.81899E-12
20	100	-0.3	-0.408406	1.81899E-12	0
30	100	-0.2	-0.475746	7.7307E-12	-1.09139E-11
40	100	-0.1	-0.543086	1.04592E-11	9.09495E-13
50	100	3.52296E-15	-0.610426	-3.18323E-12	-2.72848E-12
60	100	0.1	-0.677766	-1.81899E-12	5.45697E-12
70	100	0.2	-0.745106	2.27374E-11	-1.45519E-11
80	100	0.3	-0.812446	-4.54747E-12	-1.00044E-11
90	100	0.4	-0.879786	5.45697E-12	-2.72848E-12
100	100	0.5	-0.947125	639.426	-7.27596E-12

1	2	13	12
2	3	14	13
3	4	15	14
4	5	16	15
5	6	17	16
6	7	18	17
7	8	19	18
8	9	20	19
9	10	21	20
10	11	22	21
12	13	24	23
13	14	25	24
14	15	26	25
15	16	27	26
16	17	28	27
17	18	29	28
18	19	30	29
19	20	31	30
20	21	32	31
21	22	33	32
23	24	35	34
24	25	36	35
25	26	37	36
26	27	38	37
27	28	39	38
28	29	40	39
29	30	41	40
30	31	42	41
31	32	43	42
32	33	44	43
34	35	46	45
35	36	47	46
36	37	48	47
37	38	49	48
38	39	50	49
39	40	51	50
40	41	52	51
41	42	53	52
42	43	54	53
43	44	55	54
45	46	57	56
46	47	58	57
47	48	59	58
48	49	60	59
49	50	61	60
50	51	62	61
51	52	63	62
52	53	64	63
53	54	65	64
54	55	66	65
56	57	68	67
57	58	69	68
58	59	70	69
59	60	71	70
60	61	72	71
61	62	73	72
62	63	74	73
63	64	75	74
64	65	76	75
65	66	77	76
67	68	79	78
68	69	80	79
69	70	81	80
70	71	82	81
71	72	83	82
72	73	84	83
73	74	85	84
74	75	86	85
75	76	87	86
76	77	88	87
78	79	90	89
79	80	91	90
80	81	92	91
81	82	93	92
82	83	94	93
83	84	95	94
84	85	96	95
85	86	97	96
86	87	98	97
87	88	99	98
89	90	101	100
90	91	102	101
91	92	103	102
92	93	104	103
93	94	105	104
94	95	106	105
95	96	107	106
96	97	108	107
97	98	109	108
98	99	110	109
100	101	112	111
101	102	113	112
102	103	114	113
103	104	115	114
104	105	116	115
105	106	117	116
106	107	118	117
107	108	119	118
108	109	120	119
109	110	121	120

